 VARIABLES = X,Y,DU1,DU2,U1,U2,S11,S22,S33,S12
 ZONE, T="0.1000D+01" F=FEPOINT, I=  259 J=  457
   0.3707614066E-01   0.1124038897E+00   0.1970206269E-04  -0.3140630576E-04   0.0000000000E+00   0.0000000000E+00   0.4816593815E-01   0.5287046730E-02   0.0000000000E+00  -0.5394301355E-02
   0.1952369179E-01   0.9804646504E-01   0.1465939347E-04  -0.3206156463E-04   0.0000000000E+00   0.0000000000E+00   0.6401117814E-01   0.5987586262E-02   0.0000000000E+00  -0.7419193661E-02
   0.3829754064E-01   0.9235879759E-01   0.2919803910E-04  -0.2915430520E-04   0.0000000000E+00   0.0000000000E+00   0.5875353576E-01   0.8884685428E-02   0.0000000000E+00  -0.1567897087E-01
   0.1069363225E+00   0.2330920520E+00   0.2648151673E-04  -0.2874700245E-04   0.0000000000E+00   0.0000000000E+00   0.2865276743E-01  -0.1869266295E-03   0.0000000000E+00   0.1449897914E-02
   0.9724342808E-01   0.2499681110E+00   0.2120417979E-04  -0.3188904737E-04   0.0000000000E+00   0.0000000000E+00   0.2737170122E-01  -0.4591512791E-04   0.0000000000E+00   0.7112164986E-03
   0.8739019280E-01   0.2329939045E+00   0.2102649867E-04  -0.3221245268E-04   0.0000000000E+00   0.0000000000E+00   0.2720333764E-01  -0.1025391827E-03   0.0000000000E+00   0.1666210721E-02
   0.8879027710E-01   0.7379202717E-01   0.5509899626E-04  -0.1431083189E-04   0.0000000000E+00   0.0000000000E+00   0.1710303315E-01  -0.2217435301E-02   0.0000000000E+00  -0.6618853542E-02
   0.7333685892E-01   0.8912453068E-01   0.4382121659E-04  -0.2026541942E-04   0.0000000000E+00   0.0000000000E+00   0.2737292890E-01   0.1148577260E-02   0.0000000000E+00  -0.8399529439E-02
   0.7076488249E-01   0.7068996132E-01   0.5420108989E-04  -0.2072007516E-04   0.0000000000E+00   0.0000000000E+00   0.1709720599E-01   0.5315459985E-02   0.0000000000E+00  -0.9301857400E-02
   0.1653175131E+00   0.2330875676E+00   0.4413006331E-04  -0.1934342566E-04   0.0000000000E+00   0.0000000000E+00   0.3116008989E-01  -0.2185421786E-03   0.0000000000E+00   0.3705746131E-03
   0.1555943766E+00   0.2499776770E+00   0.3881560178E-04  -0.2232298535E-04   0.0000000000E+00   0.0000000000E+00   0.3217086173E-01  -0.9301701019E-04   0.0000000000E+00   0.2464154130E-03
   0.1458643027E+00   0.2330962493E+00   0.3809667572E-04  -0.2216570659E-04   0.0000000000E+00   0.0000000000E+00   0.3068182623E-01  -0.2445856405E-03   0.0000000000E+00   0.7388611884E-03
   0.1018804614E+00   0.5682403723E-01   0.6450040802E-04  -0.9084672578E-05   0.0000000000E+00   0.0000000000E+00   0.9554691758E-02  -0.5594971139E-02   0.0000000000E+00  -0.4997173735E-02
   0.8321051533E-01   0.5554150083E-01   0.6355583224E-04  -0.1552286837E-04   0.0000000000E+00   0.0000000000E+00   0.5137188077E-02  -0.4375072246E-02   0.0000000000E+00  -0.2147881577E-02
   0.9815329087E-01   0.1950423337E-01   0.7476426973E-04  -0.4799032127E-05   0.0000000000E+00   0.0000000000E+00  -0.8264656179E-03  -0.1764040075E-01   0.0000000000E+00   0.7378994679E-03
   0.1000752983E+00   0.0000000000E+00   0.7529734364E-04   0.0000000000E+00   0.0000000000E+00   0.0000000000E+00   0.2464167346E-02  -0.3293315775E-01   0.0000000000E+00  -0.1953380882E-02
   0.1209103288E+00   0.0000000000E+00   0.7699876226E-04   0.0000000000E+00   0.0000000000E+00   0.0000000000E+00  -0.6420756020E-03  -0.1385145329E-01   0.0000000000E+00   0.2025776928E-03
   0.1555790997E+00   0.2161760860E+00   0.4322272461E-04  -0.1907998674E-04   0.0000000000E+00   0.0000000000E+00   0.3022059306E-01  -0.6997336479E-03   0.0000000000E+00   0.8863237746E-03
   0.1750414100E+00   0.2161624327E+00   0.4914700317E-04  -0.1646129091E-04   0.0000000000E+00   0.0000000000E+00   0.3023541797E-01  -0.5847510311E-03   0.0000000000E+00   0.2799388080E-03
   0.1752221530E-01   0.2244956703E+00   0.4143803409E-05  -0.4056972621E-04   0.0000000000E+00   0.0000000000E+00   0.2460926169E-01   0.6752498888E-03   0.0000000000E+00   0.6562984869E-03
   0.0000000000E+00   0.2312085166E+00   0.0000000000E+00  -0.4148641016E-04   0.0000000000E+00   0.0000000000E+00   0.2152370246E-01   0.6432479980E-03   0.0000000000E+00   0.1679549925E-03
   0.0000000000E+00   0.2124596870E+00   0.0000000000E+00  -0.4031897097E-04   0.0000000000E+00   0.0000000000E+00   0.2571362482E-01   0.1535942171E-02   0.0000000000E+00   0.8115031534E-03
   0.0000000000E+00   0.1187146059E+00   0.0000000000E+00  -0.3539313359E-04   0.0000000000E+00   0.0000000000E+00   0.6055658420E-01   0.5842267005E-02   0.0000000000E+00  -0.1674618625E-02
   0.0000000000E+00   0.9996849470E-01   0.0000000000E+00  -0.3150630142E-04   0.0000000000E+00   0.0000000000E+00   0.8919444643E-01  -0.1930975870E-02   0.0000000000E+00   0.7869889487E-03
   0.1824473722E-01   0.1245373926E+00   0.8388817800E-05  -0.3476539762E-04   0.0000000000E+00   0.0000000000E+00   0.4476454257E-01   0.6631177337E-02   0.0000000000E+00  -0.1881229353E-02
   0.5561682466E-01   0.1017750805E+00   0.3170476389E-04  -0.2630051710E-04   0.0000000000E+00   0.0000000000E+00   0.3782704774E-01   0.2827577643E-02   0.0000000000E+00  -0.7975573379E-02
   0.5559964768E-01   0.8312157343E-01   0.4262398064E-04  -0.2538606548E-04   0.0000000000E+00   0.0000000000E+00   0.3621325589E-01   0.9771562402E-02   0.0000000000E+00  -0.1553441517E-01
   0.3652419762E-01   0.2153772179E+00   0.9259719967E-05  -0.3849813995E-04   0.0000000000E+00   0.0000000000E+00   0.2611075557E-01   0.9540304199E-03   0.0000000000E+00   0.2109206802E-02
   0.5762521186E-01   0.2158493846E+00   0.1476715819E-04  -0.3576243071E-04   0.0000000000E+00   0.0000000000E+00   0.2685883706E-01   0.3151335315E-03   0.0000000000E+00   0.2728760326E-02
   0.4852934834E-01   0.2330484138E+00   0.1106313877E-04  -0.3829120748E-04   0.0000000000E+00   0.0000000000E+00   0.2437237565E-01   0.3015818031E-03   0.0000000000E+00   0.1625629361E-02
   0.1744766565E-01   0.1456188624E+00   0.6385448824E-05  -0.3611355065E-04   0.0000000000E+00   0.0000000000E+00   0.3847593089E-01   0.6039956993E-02   0.0000000000E+00   0.8316613121E-03
   0.0000000000E+00   0.1562126105E+00   0.0000000000E+00  -0.3738954632E-04   0.0000000000E+00   0.0000000000E+00   0.3587652164E-01   0.6617154687E-02   0.0000000000E+00   0.9638355005E-03
   0.0000000000E+00   0.1374634046E+00   0.0000000000E+00  -0.3659837422E-04   0.0000000000E+00   0.0000000000E+00   0.4260103108E-01   0.8339202902E-02   0.0000000000E+00   0.2383313873E-02
   0.3594399914E-01   0.1343248784E+00   0.1444593609E-04  -0.3322961225E-04   0.0000000000E+00   0.0000000000E+00   0.4087957091E-01   0.5552915917E-02   0.0000000000E+00   0.7592568870E-03
   0.3216472428E-01   0.2345383783E+00   0.7113181308E-05  -0.4018667752E-04   0.0000000000E+00   0.0000000000E+00   0.2239027204E-01   0.1357474955E-03   0.0000000000E+00   0.1190066390E-02
   0.1944809719E-01   0.2499578903E+00   0.3652094416E-05  -0.4210966780E-04   0.0000000000E+00   0.0000000000E+00   0.2016558324E-01   0.2408024499E-03   0.0000000000E+00   0.3389940152E-03
   0.1289766987E+00   0.2146501432E-01   0.7557473753E-04  -0.1509082269E-05   0.0000000000E+00   0.0000000000E+00   0.1984796408E-02  -0.5646289918E-02   0.0000000000E+00  -0.2126164336E-02
   0.3292637666E+00   0.0000000000E+00   0.9708561447E-04   0.0000000000E+00   0.0000000000E+00   0.0000000000E+00   0.1526144253E-01   0.4288491721E-02   0.0000000000E+00  -0.6289414136E-04
   0.3500999940E+00   0.0000000000E+00   0.1000000000E-03   0.0000000000E+00   0.0000000000E+00   0.0000000000E+00   0.1518244609E-01   0.4285231849E-02   0.0000000000E+00   0.3077213065E-04
   0.3500999940E+00   0.1923071267E-01   0.1000000000E-03  -0.5723180056E-07   0.0000000000E+00   0.0000000000E+00   0.1547161065E-01   0.4280006777E-02   0.0000000000E+00   0.1349880053E-05
   0.3315266046E+00   0.2617160853E-01   0.9733160744E-04  -0.9247341064E-07   0.0000000000E+00   0.0000000000E+00   0.1566422115E-01   0.4222909106E-02   0.0000000000E+00  -0.1646251852E-03
   0.3500999940E+00   0.3846138015E-01   0.1000000000E-03  -0.1597495299E-06   0.0000000000E+00   0.0000000000E+00   0.1599875338E-01   0.4049244403E-02   0.0000000000E+00  -0.1588829881E-04
   0.3158750076E+00   0.7695483419E-01   0.9418958981E-04  -0.7376112200E-06   0.0000000000E+00   0.0000000000E+00   0.1789912419E-01   0.3159293805E-02   0.0000000000E+00  -0.8384186803E-03
   0.3328255317E+00   0.6720887336E-01   0.9717574174E-04  -0.5194448291E-06   0.0000000000E+00   0.0000000000E+00   0.1737084431E-01   0.3474193865E-02   0.0000000000E+00  -0.3738867013E-03
   0.3331817415E+00   0.8655653712E-01   0.9700945143E-04  -0.9331800925E-06   0.0000000000E+00   0.0000000000E+00   0.1857546088E-01   0.3008987432E-02   0.0000000000E+00  -0.4203626390E-03
   0.3115095969E+00   0.3581675856E-01   0.9434191391E-04  -0.1605419976E-06   0.0000000000E+00   0.0000000000E+00   0.1569291630E-01   0.3939180355E-02   0.0000000000E+00  -0.5682761462E-03
   0.3158683613E+00   0.1595492655E-01   0.9517226481E-04  -0.5224852899E-07   0.0000000000E+00   0.0000000000E+00   0.1520340209E-01   0.4180524552E-02   0.0000000000E+00  -0.2235417628E-03
   0.2776900625E+00   0.1796167993E-01   0.8992348300E-04  -0.7176727174E-07   0.0000000000E+00   0.0000000000E+00   0.1448329097E-01   0.3833247508E-02   0.0000000000E+00  -0.5133224399E-03
   0.2667553308E+00   0.0000000000E+00   0.8864976990E-04   0.0000000000E+00   0.0000000000E+00   0.0000000000E+00   0.1387935833E-01   0.3785463552E-02   0.0000000000E+00  -0.2259613393E-03
   0.2875913639E+00   0.0000000000E+00   0.9136986710E-04   0.0000000000E+00   0.0000000000E+00   0.0000000000E+00   0.1454608866E-01   0.4039031922E-02   0.0000000000E+00  -0.1707454794E-03
   0.2355699850E+00   0.1793979751E-01   0.8460995106E-04  -0.1052906374E-06   0.0000000000E+00   0.0000000000E+00   0.1269794317E-01   0.3082392836E-02   0.0000000000E+00  -0.9462374533E-03
   0.2459194126E+00   0.0000000000E+00   0.8607563952E-04   0.0000000000E+00   0.0000000000E+00   0.0000000000E+00   0.1294975462E-01   0.3421933983E-02   0.0000000000E+00  -0.3102237586E-03
   0.2565963047E+00   0.1802023289E-01   0.8717966025E-04  -0.8591423268E-07   0.0000000000E+00   0.0000000000E+00   0.1370475257E-01   0.3520717901E-02   0.0000000000E+00  -0.7268939280E-03
   0.2989882337E+00   0.8661893043E-01   0.9096768812E-04  -0.1035269428E-05   0.0000000000E+00   0.0000000000E+00   0.1846826014E-01   0.2711231528E-02   0.0000000000E+00  -0.1301055084E-02
   0.3162541494E+00   0.9621814982E-01   0.9376838606E-04  -0.1248281576E-05   0.0000000000E+00   0.0000000000E+00   0.1921840049E-01   0.2654916015E-02   0.0000000000E+00  -0.8866956360E-03
   0.2993763567E+00   0.1058832572E+00   0.9025972457E-04  -0.1667812558E-05   0.0000000000E+00   0.0000000000E+00   0.1992879879E-01   0.2204707818E-02   0.0000000000E+00  -0.1340814982E-02
   0.1936984754E+00   0.1783134111E-01   0.8017744689E-04  -0.1985899284E-06   0.0000000000E+00   0.0000000000E+00   0.9712517896E-02   0.1569052511E-02   0.0000000000E+00  -0.1552418730E-02
   0.2042482444E+00   0.0000000000E+00   0.8157837301E-04   0.0000000000E+00   0.0000000000E+00   0.0000000000E+00   0.1010678498E-01   0.2213348651E-02   0.0000000000E+00  -0.5559914911E-03
   0.2146474778E+00   0.1790992917E-01   0.8226080055E-04  -0.1397306798E-06   0.0000000000E+00   0.0000000000E+00   0.1137916061E-01   0.2456476899E-02   0.0000000000E+00  -0.1227455226E-02
   0.1321666985E+00   0.4107699521E-01   0.7224050790E-04  -0.2820286515E-05   0.0000000000E+00   0.0000000000E+00   0.6881139245E-02  -0.5539173251E-02   0.0000000000E+00  -0.5238408408E-02
   0.1251533831E+00   0.5990111117E-01   0.6643510359E-04  -0.5058634435E-05   0.0000000000E+00   0.0000000000E+00   0.1186306240E-01  -0.6189931697E-02   0.0000000000E+00  -0.7007800584E-02
   0.1130681108E+00   0.3922610363E-01   0.7135383372E-04  -0.4950869544E-05   0.0000000000E+00   0.0000000000E+00   0.3369484065E-02  -0.9415332689E-02   0.0000000000E+00  -0.3609281003E-02
   0.1728034071E+00   0.1763007935E-01   0.7843011881E-04  -0.3114530165E-06   0.0000000000E+00   0.0000000000E+00   0.7619267537E-02   0.3323700965E-03   0.0000000000E+00  -0.1939973542E-02
   0.1834131241E+00   0.0000000000E+00   0.7978705256E-04   0.0000000000E+00   0.0000000000E+00   0.0000000000E+00   0.8005268436E-02   0.1154146791E-02   0.0000000000E+00  -0.7637776519E-03
   0.9245832995E-01   0.3825823069E-01   0.7037804686E-04  -0.1011191402E-04   0.0000000000E+00   0.0000000000E+00   0.4324947399E-03  -0.1663180203E-01   0.0000000000E+00   0.1741914710E-02
   0.3306497550E+00   0.2499888769E+00   0.9419703745E-04  -0.1112310538E-04   0.0000000000E+00   0.0000000000E+00   0.2976820685E-01   0.1310383938E-04   0.0000000000E+00   0.8363482683E-05
   0.3500999940E+00   0.2307598765E+00   0.1000000000E-03  -0.9355545535E-05   0.0000000000E+00   0.0000000000E+00   0.2905738402E-01   0.2776449128E-04   0.0000000000E+00  -0.2867160201E-04
   0.3500999940E+00   0.2499889110E+00   0.1000000000E-03  -0.1108898531E-04   0.0000000000E+00   0.0000000000E+00   0.3023479613E-01  -0.1539314656E-03   0.0000000000E+00   0.1451346133E-03
   0.3241553067E+00   0.2323493259E+00   0.9245270500E-04  -0.9621109793E-05   0.0000000000E+00   0.0000000000E+00   0.2910986216E-01   0.6646698604E-04   0.0000000000E+00  -0.2371085513E-03
   0.3111994751E+00   0.2499886583E+00   0.8835309668E-04  -0.1134165269E-04   0.0000000000E+00   0.0000000000E+00   0.3017745681E-01   0.6895737678E-04   0.0000000000E+00  -0.2289896746E-04
   0.2834014522E+00   0.1997172790E+00   0.8194920361E-04  -0.7619004470E-05   0.0000000000E+00   0.0000000000E+00   0.2746483522E-01   0.2744910145E-03   0.0000000000E+00  -0.8499130306E-03
   0.2730371104E+00   0.2161555260E+00   0.7820542622E-04  -0.9285963020E-05   0.0000000000E+00   0.0000000000E+00   0.2876304904E-01   0.8204396427E-04   0.0000000000E+00  -0.7272865081E-03
   0.2634099552E+00   0.1994765501E+00   0.7645620386E-04  -0.8229896279E-05   0.0000000000E+00   0.0000000000E+00   0.2772388475E-01   0.1175270722E-03   0.0000000000E+00  -0.1011275590E-02
   0.3156803099E+00   0.1923739511E+00   0.9091193211E-04  -0.6461913176E-05   0.0000000000E+00   0.0000000000E+00   0.2652511304E-01   0.4642384004E-03   0.0000000000E+00  -0.5504278119E-03
   0.3332063350E+00   0.1825915626E+00   0.9567499064E-04  -0.5597403412E-05   0.0000000000E+00   0.0000000000E+00   0.2585215712E-01   0.7019459554E-03   0.0000000000E+00  -0.3150588315E-03
   0.3332271679E+00   0.2016180848E+00   0.9543690959E-04  -0.7009181154E-05   0.0000000000E+00   0.0000000000E+00   0.2728352984E-01   0.3901990771E-03   0.0000000000E+00  -0.2731402400E-03
   0.3333051506E+00   0.1634075345E+00   0.9596358581E-04  -0.4321463338E-05   0.0000000000E+00   0.0000000000E+00   0.2437726536E-01   0.1084698091E-02   0.0000000000E+00  -0.3712021275E-03
   0.3500999940E+00   0.1730720228E+00   0.1000000000E-03  -0.4905177253E-05   0.0000000000E+00   0.0000000000E+00   0.2509734701E-01   0.8917626891E-03   0.0000000000E+00   0.1905822967E-04
   0.3500999940E+00   0.1538424485E+00   0.1000000000E-03  -0.3711514786E-05   0.0000000000E+00   0.0000000000E+00   0.2362048162E-01   0.1316648318E-02   0.0000000000E+00   0.1527249129E-04
   0.2677315150E+00   0.3629384242E-01   0.8812300018E-04  -0.2155849241E-06   0.0000000000E+00   0.0000000000E+00   0.1477446956E-01   0.3438404369E-02   0.0000000000E+00  -0.1272358588E-02
   0.3164918340E+00   0.1346246709E+00   0.9273700697E-04  -0.2805122689E-05   0.0000000000E+00   0.0000000000E+00   0.2217550520E-01   0.1648779293E-02   0.0000000000E+00  -0.8408615191E-03
   0.3164704442E+00   0.1154543316E+00   0.9328117790E-04  -0.1936385248E-05   0.0000000000E+00   0.0000000000E+00   0.2066366133E-01   0.2142842153E-02   0.0000000000E+00  -0.8840991712E-03
   0.3333383098E+00   0.1250161768E+00   0.9651877969E-04  -0.2271193350E-05   0.0000000000E+00   0.0000000000E+00   0.2138501569E-01   0.1998309020E-02   0.0000000000E+00  -0.4332938736E-03
   0.3500999940E+00   0.9615266265E-01   0.1000000000E-03  -0.1185250063E-05   0.0000000000E+00   0.0000000000E+00   0.1924438497E-01   0.2789403101E-02   0.0000000000E+00  -0.9047286012E-05
   0.3332964587E+00   0.1057897652E+00   0.9677867495E-04  -0.1512806384E-05   0.0000000000E+00   0.0000000000E+00   0.1992934888E-01   0.2504648636E-02   0.0000000000E+00  -0.4391733116E-03
   0.3500999940E+00   0.7692238405E-01   0.1000000000E-03  -0.6957522898E-06   0.0000000000E+00   0.0000000000E+00   0.1797624914E-01   0.3270866249E-02   0.0000000000E+00  -0.1029374351E-04
   0.3319526840E+00   0.4723401751E-01   0.9723800691E-04  -0.2457920375E-06   0.0000000000E+00   0.0000000000E+00   0.1634514982E-01   0.3879721702E-02   0.0000000000E+00  -0.3201418820E-03
   0.3500999940E+00   0.5769194644E-01   0.1000000000E-03  -0.3615639851E-06   0.0000000000E+00   0.0000000000E+00   0.1688643832E-01   0.3691733497E-02   0.0000000000E+00  -0.4918533927E-05
   0.0000000000E+00   0.2499575635E+00   0.0000000000E+00  -0.4243653196E-04   0.0000000000E+00   0.0000000000E+00   0.1709382768E-01   0.8048817435E-03   0.0000000000E+00   0.1039614454E-02
   0.3889625514E-01   0.2499594913E+00   0.7364842731E-05  -0.4050866070E-04   0.0000000000E+00   0.0000000000E+00   0.1972788073E-01   0.1050926024E-03   0.0000000000E+00   0.5319331568E-03
   0.5552984736E-01   0.1231099071E+00   0.2433326408E-04  -0.2833394926E-04   0.0000000000E+00   0.0000000000E+00   0.3921409511E-01   0.2312551343E-02   0.0000000000E+00  -0.4736941727E-03
   0.6783406756E-01   0.2329352180E+00   0.1586546205E-04  -0.3549704800E-04   0.0000000000E+00   0.0000000000E+00   0.2562281590E-01   0.4548944710E-04   0.0000000000E+00   0.1708892006E-02
   0.5834483937E-01   0.2499618611E+00   0.1150576734E-04  -0.3813888870E-04   0.0000000000E+00   0.0000000000E+00   0.2247186341E-01   0.5735646230E-04   0.0000000000E+00   0.7000739524E-03
   0.7779389249E-01   0.2499648227E+00   0.1611188936E-04  -0.3517733577E-04   0.0000000000E+00   0.0000000000E+00   0.2496068340E-01   0.1088018234E-04   0.0000000000E+00   0.7897512805E-03
   0.1264086702E+00   0.2331036251E+00   0.3219021793E-04  -0.2533988709E-04   0.0000000000E+00   0.0000000000E+00   0.2983968138E-01  -0.2339459073E-03   0.0000000000E+00   0.1117875179E-02
   0.1166934100E+00   0.2499714752E+00   0.2674302043E-04  -0.2852484363E-04   0.0000000000E+00   0.0000000000E+00   0.2947510788E-01  -0.7688561492E-04   0.0000000000E+00   0.5781153061E-03
   0.1361437578E+00   0.2499747127E+00   0.3264781174E-04  -0.2528730484E-04   0.0000000000E+00   0.0000000000E+00   0.3109963580E-01  -0.9147747448E-04   0.0000000000E+00   0.4160734100E-03
   0.1361237211E+00   0.2162087871E+00   0.3731706920E-04  -0.2211190293E-04   0.0000000000E+00   0.0000000000E+00   0.2998836252E-01  -0.7263119469E-03   0.0000000000E+00   0.1564976983E-02
   0.1847719594E+00   0.2330842718E+00   0.5022142759E-04  -0.1693219664E-04   0.0000000000E+00   0.0000000000E+00   0.3131361399E-01  -0.1706614424E-03   0.0000000000E+00   0.5986735487E-04
   0.1750451354E+00   0.2499802779E+00   0.4513841583E-04  -0.1972205258E-04   0.0000000000E+00   0.0000000000E+00   0.3270936609E-01  -0.8207538983E-04   0.0000000000E+00   0.9430027409E-04
   0.2042264358E+00   0.2330894661E+00   0.5631275140E-04  -0.1494188429E-04   0.0000000000E+00   0.0000000000E+00   0.3121207940E-01  -0.1154916847E-03   0.0000000000E+00  -0.1703857025E-03
   0.1944959674E+00   0.2499824783E+00   0.5151941412E-04  -0.1752166628E-04   0.0000000000E+00   0.0000000000E+00   0.3280083775E-01  -0.6445444541E-04   0.0000000000E+00  -0.2459358943E-04
   0.2236798409E+00   0.2331028909E+00   0.6236187306E-04  -0.1334810362E-04   0.0000000000E+00   0.0000000000E+00   0.3093409274E-01  -0.6135274864E-04   0.0000000000E+00  -0.3149265679E-03
   0.2139467667E+00   0.2499842818E+00   0.5788267934E-04  -0.1571824119E-04   0.0000000000E+00   0.0000000000E+00   0.3256424732E-01  -0.4475142269E-04   0.0000000000E+00  -0.1047575668E-03
   0.2431473546E+00   0.2331151455E+00   0.6834758865E-04  -0.1210546216E-04   0.0000000000E+00   0.0000000000E+00   0.3055202716E-01  -0.1517419206E-04   0.0000000000E+00  -0.3816078095E-03
   0.2333975106E+00   0.2499857183E+00   0.6417657861E-04  -0.1428174856E-04   0.0000000000E+00   0.0000000000E+00   0.3212429650E-01  -0.2705207080E-04   0.0000000000E+00  -0.1469869207E-03
   0.2627778446E+00   0.2330524555E+00   0.7430657453E-04  -0.1115253658E-04   0.0000000000E+00   0.0000000000E+00   0.3013195082E-01   0.2014991596E-04   0.0000000000E+00  -0.3853266854E-03
   0.2528481581E+00   0.2499868302E+00   0.7037310174E-04  -0.1316977753E-04   0.0000000000E+00   0.0000000000E+00   0.3159252417E-01  -0.1033059475E-04   0.0000000000E+00  -0.1562495627E-03
   0.2826569418E+00   0.2328543866E+00   0.8026181623E-04  -0.1044042316E-04   0.0000000000E+00   0.0000000000E+00   0.2973391281E-01   0.4543475846E-04   0.0000000000E+00  -0.3395021048E-03
   0.2722986842E+00   0.2499876630E+00   0.7646319227E-04  -0.1233704682E-04   0.0000000000E+00   0.0000000000E+00   0.3104836387E-01   0.3751982303E-05   0.0000000000E+00  -0.1415976500E-03
   0.3030436234E+00   0.2323371426E+00   0.8629744436E-04  -0.9913367444E-05   0.0000000000E+00   0.0000000000E+00   0.2934564922E-01   0.7084329879E-04   0.0000000000E+00  -0.2645125613E-03
   0.2917491091E+00   0.2499882586E+00   0.8245211787E-04  -0.1174144114E-04   0.0000000000E+00   0.0000000000E+00   0.3056771202E-01   0.2425879723E-04   0.0000000000E+00  -0.1138307428E-03
   0.1653172334E+00   0.1646822149E+00   0.5268638717E-04  -0.1239213513E-04   0.0000000000E+00   0.0000000000E+00   0.2820696632E-01  -0.2478759311E-02   0.0000000000E+00  -0.6844176556E-03
   0.1554138720E+00   0.1822314968E+00   0.4739202920E-04  -0.1562017768E-04   0.0000000000E+00   0.0000000000E+00   0.2931673149E-01  -0.2035363240E-02   0.0000000000E+00   0.4252586323E-03
   0.1452841166E+00   0.1648074819E+00   0.4674560894E-04  -0.1512614196E-04   0.0000000000E+00   0.0000000000E+00   0.2929863757E-01  -0.2991348000E-02   0.0000000000E+00   0.1177688292E-03
   0.2250836929E+00   0.0000000000E+00   0.8369892218E-04   0.0000000000E+00   0.0000000000E+00   0.0000000000E+00   0.1172426026E-01   0.2925241228E-02   0.0000000000E+00  -0.4148430085E-03
   0.1614987141E+00   0.7205118963E-01   0.6907013744E-04  -0.3092172977E-05   0.0000000000E+00   0.0000000000E+00   0.1598626019E-01  -0.3100345125E-02   0.0000000000E+00  -0.6335911134E-02
   0.1831175263E+00   0.7144735794E-01   0.7275031587E-04  -0.2137957717E-05   0.0000000000E+00   0.0000000000E+00   0.1598039732E-01  -0.1072625518E-02   0.0000000000E+00  -0.5184241649E-02
   0.1726191239E+00   0.9033902488E-01   0.6737288792E-04  -0.3966223940E-05   0.0000000000E+00   0.0000000000E+00   0.1967562389E-01  -0.2543393756E-02   0.0000000000E+00  -0.5105119445E-02
   0.1739330965E-01   0.2040734234E+00   0.4636154217E-05  -0.3928559769E-04   0.0000000000E+00   0.0000000000E+00   0.2734117754E-01   0.2152479526E-02   0.0000000000E+00   0.1130677059E-02
   0.0000000000E+00   0.1937107950E+00   0.0000000000E+00  -0.3919898785E-04   0.0000000000E+00   0.0000000000E+00   0.2879557315E-01   0.3004001426E-02   0.0000000000E+00   0.7310389756E-03
   0.1683789487E-01   0.1844886057E+00   0.4902465575E-05  -0.3816532501E-04   0.0000000000E+00   0.0000000000E+00   0.3028961795E-01   0.3521578167E-02   0.0000000000E+00   0.1281521667E-02
   0.0000000000E+00   0.1749617762E+00   0.0000000000E+00  -0.3822079477E-04   0.0000000000E+00   0.0000000000E+00   0.3184267862E-01   0.4759971824E-02   0.0000000000E+00   0.8639088080E-03
   0.1691225126E-01   0.1652870342E+00   0.5414261820E-05  -0.3714676786E-04   0.0000000000E+00   0.0000000000E+00   0.3356617720E-01   0.5009937143E-02   0.0000000000E+00   0.1299426914E-02
   0.3380728379E-01   0.1749535587E+00   0.1033639070E-04  -0.3608225339E-04   0.0000000000E+00   0.0000000000E+00   0.3191049898E-01   0.3320074954E-02   0.0000000000E+00   0.2745526422E-02
   0.3459758062E-01   0.1552067845E+00   0.1178431730E-04  -0.3476454804E-04   0.0000000000E+00   0.0000000000E+00   0.3530817312E-01   0.4422820314E-02   0.0000000000E+00   0.2446084182E-02
   0.3374362655E-01   0.1942166431E+00   0.9457645141E-05  -0.3732289439E-04   0.0000000000E+00   0.0000000000E+00   0.2910167644E-01   0.1992272974E-02   0.0000000000E+00   0.2486466328E-02
   0.5386306469E-01   0.1449797063E+00   0.1957389014E-04  -0.3070572483E-04   0.0000000000E+00   0.0000000000E+00   0.3616417683E-01   0.2138691009E-02   0.0000000000E+00   0.2524946448E-02
   0.9713866112E-01   0.2161020877E+00   0.2577451943E-04  -0.2900329274E-04   0.0000000000E+00   0.0000000000E+00   0.2876482888E-01  -0.4309298036E-03   0.0000000000E+00   0.2732217053E-02
   0.1417441889E+00   0.0000000000E+00   0.7752290771E-04   0.0000000000E+00   0.0000000000E+00   0.0000000000E+00   0.2390853209E-02  -0.3791308844E-02   0.0000000000E+00  -0.2516263178E-02
   0.1521292190E+00   0.1778483460E-01   0.7703998335E-04  -0.6084046099E-06   0.0000000000E+00   0.0000000000E+00   0.5124638451E-02  -0.2131272240E-02   0.0000000000E+00  -0.1859600052E-02
   0.1625784078E+00   0.0000000000E+00   0.7841384475E-04   0.0000000000E+00   0.0000000000E+00   0.0000000000E+00   0.5170840158E-02  -0.8003909996E-03   0.0000000000E+00  -0.1092066646E-02
   0.3500999940E+00   0.1153827686E+00   0.1000000000E-03  -0.1847379294E-05   0.0000000000E+00   0.0000000000E+00   0.2064438000E-01   0.2284016154E-02   0.0000000000E+00  -0.3200313032E-05
   0.3500999940E+00   0.1346127012E+00   0.1000000000E-03  -0.2689797630E-05   0.0000000000E+00   0.0000000000E+00   0.2211759864E-01   0.1784600257E-02   0.0000000000E+00   0.5669384236E-05
   0.3333589006E+00   0.1442267393E+00   0.9624863985E-04  -0.3209726548E-05   0.0000000000E+00   0.0000000000E+00   0.2288652390E-01   0.1516724319E-02   0.0000000000E+00  -0.4081278596E-03
   0.1623205348E+00   0.3474174699E-01   0.7591680331E-04  -0.9511092081E-06   0.0000000000E+00   0.0000000000E+00   0.8800621930E-02  -0.1135117351E-02   0.0000000000E+00  -0.4283143751E-02
   0.1830931003E+00   0.3537191531E-01   0.7782830278E-04  -0.6175883155E-06   0.0000000000E+00   0.0000000000E+00   0.1030073448E-01   0.3794891397E-03   0.0000000000E+00  -0.3595080888E-02
   0.1448684394E+00   0.3344409384E-01   0.7466042632E-04  -0.1547558447E-05   0.0000000000E+00   0.0000000000E+00   0.5657455161E-02  -0.3511630335E-02   0.0000000000E+00  -0.5047301260E-02
   0.2139708945E+00   0.2161800215E+00   0.6089547088E-04  -0.1252246925E-04   0.0000000000E+00   0.0000000000E+00   0.2981415232E-01  -0.2679941750E-03   0.0000000000E+00  -0.5225859254E-03
   0.2889711386E+00   0.3564821667E-01   0.9111860926E-04  -0.1814307915E-06   0.0000000000E+00   0.0000000000E+00   0.1531142843E-01   0.3746189964E-02   0.0000000000E+00  -0.9388725741E-03
   0.2987374887E+00   0.5045183304E-01   0.9214173472E-04  -0.3210637320E-06   0.0000000000E+00   0.0000000000E+00   0.1615181311E-01   0.3669355872E-02   0.0000000000E+00  -0.9718340296E-03
   0.3149453034E+00   0.5754617646E-01   0.9446639390E-04  -0.3907388823E-06   0.0000000000E+00   0.0000000000E+00   0.1681667145E-01   0.3651657215E-02   0.0000000000E+00  -0.7277700522E-03
   0.6705656925E-01   0.1969309064E+00   0.1889745171E-04  -0.3271658558E-04   0.0000000000E+00   0.0000000000E+00   0.2939209688E-01   0.3398053887E-03   0.0000000000E+00   0.3539952195E-02
   0.4892303646E-01   0.2014238272E+00   0.1337606477E-04  -0.3592380536E-04   0.0000000000E+00   0.0000000000E+00   0.2847311772E-01   0.1148772180E-02   0.0000000000E+00   0.3224464452E-02
   0.7742387135E-01   0.2156294522E+00   0.2022164993E-04  -0.3250583401E-04   0.0000000000E+00   0.0000000000E+00   0.2796748058E-01  -0.4762943582E-04   0.0000000000E+00   0.3032630992E-02
   0.8759959402E-01   0.1993801640E+00   0.2473211944E-04  -0.2921699173E-04   0.0000000000E+00   0.0000000000E+00   0.2958832578E-01  -0.5527736977E-03   0.0000000000E+00   0.3317276866E-02
   0.1068037502E+00   0.1994608137E+00   0.3048518979E-04  -0.2563534674E-04   0.0000000000E+00   0.0000000000E+00   0.2991787740E-01  -0.1034489899E-02   0.0000000000E+00   0.2821176691E-02
   0.1120198515E+00   0.1455591014E+00   0.3942849505E-04  -0.1835955683E-04   0.0000000000E+00   0.0000000000E+00   0.3141596852E-01  -0.3848231768E-02   0.0000000000E+00   0.6022058032E-03
   0.1041135273E+00   0.1665556348E+00   0.3360231504E-04  -0.2255416456E-04   0.0000000000E+00   0.0000000000E+00   0.3147296868E-01  -0.2566541940E-02   0.0000000000E+00   0.2237766099E-02
   0.9068295827E-01   0.1518033757E+00   0.3135666794E-04  -0.2349732023E-04   0.0000000000E+00   0.0000000000E+00   0.3272721207E-01  -0.2200107390E-02   0.0000000000E+00   0.2326330863E-02
   0.9494430504E-01   0.9628568459E-01   0.4687093848E-04  -0.1508870950E-04   0.0000000000E+00   0.0000000000E+00   0.2798739499E-01  -0.4794771761E-02   0.0000000000E+00  -0.5083248246E-02
   0.1089559053E+00   0.7685460113E-01   0.5789130539E-04  -0.9604170904E-05   0.0000000000E+00   0.0000000000E+00   0.1842920010E-01  -0.6311296747E-02   0.0000000000E+00  -0.7052312223E-02
   0.1945059032E+00   0.2161572077E+00   0.5504822790E-04  -0.1428029963E-04   0.0000000000E+00   0.0000000000E+00   0.3008102117E-01  -0.4289438118E-03   0.0000000000E+00  -0.1956685697E-03
   0.2251513788E+00   0.3586934882E-01   0.8255575674E-04  -0.3240846645E-06   0.0000000000E+00   0.0000000000E+00   0.1307370130E-01   0.2418478550E-02   0.0000000000E+00  -0.2261497571E-02
   0.2462744060E+00   0.3605646386E-01   0.8524403484E-04  -0.2558376996E-06   0.0000000000E+00   0.0000000000E+00   0.1407814386E-01   0.3008298528E-02   0.0000000000E+00  -0.1722787103E-02