 VARIABLES = X,Y,DU1,DU2,U1,U2,S11,S22,S33,S12
 ZONE, T="0.1000D+01" F=FEPOINT, I= 1061 J= 1000
   0.1776237646E-01   0.1342008462E+00   0.7359764910E-05  -0.3694976194E-04   0.0000000000E+00   0.0000000000E+00   0.4329304372E-01   0.7621884041E-02   0.0000000000E+00   0.7679652083E-03
   0.0000000000E+00   0.1332955643E+00   0.0000000000E+00  -0.3777570863E-04   0.0000000000E+00   0.0000000000E+00   0.4472579300E-01   0.8715693270E-02   0.0000000000E+00   0.7618158208E-04
   0.0000000000E+00   0.1166300590E+00   0.0000000000E+00  -0.3660795950E-04   0.0000000000E+00   0.0000000000E+00   0.5746619232E-01   0.8320893425E-02   0.0000000000E+00   0.5571149980E-04
   0.1916438324E-01   0.1162556531E+00   0.1024624290E-04  -0.3553493697E-04   0.0000000000E+00   0.0000000000E+00   0.5390777265E-01   0.7731134763E-02   0.0000000000E+00  -0.2482381131E-02
   0.8881217331E-02   0.1337480013E+00   0.3708991077E-05  -0.3757465114E-04   0.0000000000E+00   0.0000000000E+00   0.4416008978E-01   0.8359893547E-02   0.0000000000E+00   0.2978494679E-03
   0.0000000000E+00   0.1249627061E+00   0.0000000000E+00  -0.3729394253E-04   0.0000000000E+00   0.0000000000E+00   0.4975598572E-01   0.7896918372E-02   0.0000000000E+00   0.4661002260E-04
   0.9582259421E-02   0.1164425912E+00   0.5190920534E-05  -0.3633583345E-04   0.0000000000E+00   0.0000000000E+00   0.5568073742E-01   0.7946306103E-02   0.0000000000E+00  -0.1369742537E-02
   0.1846314009E-01   0.1252281722E+00   0.8562294589E-05  -0.3632376323E-04   0.0000000000E+00   0.0000000000E+00   0.4773568664E-01   0.7305943911E-02   0.0000000000E+00  -0.7954309628E-03
   0.7801986586E-01   0.2318418330E+00   0.1836665797E-04  -0.3456999271E-04   0.0000000000E+00   0.0000000000E+00   0.2639954650E-01  -0.1808595659E-04   0.0000000000E+00   0.2132438764E-02
   0.9780172882E-01   0.2320243388E+00   0.2372892436E-04  -0.3092322158E-04   0.0000000000E+00   0.0000000000E+00   0.2802896464E-01  -0.1081203620E-03   0.0000000000E+00   0.1929408663E-02
   0.9724292896E-01   0.2499674748E+00   0.2070506333E-04  -0.3252522533E-04   0.0000000000E+00   0.0000000000E+00   0.2744186100E-01   0.3974266606E-04   0.0000000000E+00   0.1098670873E-03
   0.7779341131E-01   0.2499639987E+00   0.1563070863E-04  -0.3600130767E-04   0.0000000000E+00   0.0000000000E+00   0.2475157906E-01   0.8288075212E-05   0.0000000000E+00   0.1243756924E-03
   0.8791075362E-01   0.2319330711E+00   0.2100781830E-04  -0.3276889885E-04   0.0000000000E+00   0.0000000000E+00   0.2721127949E-01  -0.7413692894E-04   0.0000000000E+00   0.1993370269E-02
   0.9752242567E-01   0.2409958912E+00   0.2231006950E-04  -0.3173180802E-04   0.0000000000E+00   0.0000000000E+00   0.2766899907E-01  -0.4662318529E-04   0.0000000000E+00   0.1032949356E-02
   0.8751811078E-01   0.2499657132E+00   0.1810477757E-04  -0.3428679245E-04   0.0000000000E+00   0.0000000000E+00   0.2610158643E-01   0.1652675856E-04   0.0000000000E+00   0.5936797634E-04
   0.7790673834E-01   0.2409029043E+00   0.1710214485E-04  -0.3529772590E-04   0.0000000000E+00   0.0000000000E+00   0.2556489736E-01  -0.8494927898E-05   0.0000000000E+00   0.1142435127E-02
   0.1910233260E-01   0.2332804852E+00   0.4142004875E-05  -0.4234376313E-04   0.0000000000E+00   0.0000000000E+00   0.2195128747E-01   0.2522427988E-03   0.0000000000E+00   0.8243095051E-03
   0.0000000000E+00   0.2332904161E+00   0.0000000000E+00  -0.4291789365E-04   0.0000000000E+00   0.0000000000E+00   0.2159138537E-01   0.2798460007E-03   0.0000000000E+00   0.1801150219E-04
   0.0000000000E+00   0.2166247860E+00   0.0000000000E+00  -0.4188304632E-04   0.0000000000E+00   0.0000000000E+00   0.2489603680E-01   0.1243312680E-02   0.0000000000E+00   0.1451302827E-04
   0.1853685865E-01   0.2167332887E+00   0.4563853798E-05  -0.4132432013E-04   0.0000000000E+00   0.0000000000E+00   0.2509547779E-01   0.1123260963E-02   0.0000000000E+00   0.1262561100E-02
   0.9551157810E-02   0.2332853014E+00   0.2062509789E-05  -0.4277260514E-04   0.0000000000E+00   0.0000000000E+00   0.2177878738E-01   0.3023550521E-03   0.0000000000E+00   0.4009057468E-03
   0.0000000000E+00   0.2249575925E+00   0.0000000000E+00  -0.4240148902E-04   0.0000000000E+00   0.0000000000E+00   0.2336659151E-01   0.8012950265E-03   0.0000000000E+00   0.1571508555E-04
   0.9268424550E-02   0.2166788974E+00   0.2277159540E-05  -0.4174355686E-04   0.0000000000E+00   0.0000000000E+00   0.2500536074E-01   0.1233111142E-02   0.0000000000E+00   0.6262571613E-03
   0.1881961896E-01   0.2250068852E+00   0.4377155925E-05  -0.4183582875E-04   0.0000000000E+00   0.0000000000E+00   0.2363270437E-01   0.7231550521E-03   0.0000000000E+00   0.1037998050E-02
   0.2572889577E+00   0.9227286460E-01   0.8347168670E-04  -0.1406400188E-05   0.0000000000E+00   0.0000000000E+00   0.1846181935E-01   0.1735955268E-02   0.0000000000E+00  -0.2584526047E-02
   0.2586835324E+00   0.1102837723E+00   0.8225444304E-04  -0.2157661385E-05   0.0000000000E+00   0.0000000000E+00   0.2017258877E-01   0.1263885232E-02   0.0000000000E+00  -0.2482566807E-02
   0.2419344050E+00   0.1106741189E+00   0.7887295949E-04  -0.2550134710E-05   0.0000000000E+00   0.0000000000E+00   0.2036729864E-01   0.6814776719E-03   0.0000000000E+00  -0.2916670793E-02
   0.2394603521E+00   0.9267960196E-01   0.8021613921E-04  -0.1716539788E-05   0.0000000000E+00   0.0000000000E+00   0.1849973403E-01   0.1101672066E-02   0.0000000000E+00  -0.3133209726E-02
   0.2579862628E+00   0.1012783402E+00   0.8286582278E-04  -0.1760756974E-05   0.0000000000E+00   0.0000000000E+00   0.1931914330E-01   0.1498727386E-02   0.0000000000E+00  -0.2534991179E-02
   0.2503089775E+00   0.1104789595E+00   0.8057253873E-04  -0.2339454431E-05   0.0000000000E+00   0.0000000000E+00   0.2027509096E-01   0.9938316483E-03   0.0000000000E+00  -0.2693489934E-02
   0.2406973816E+00   0.1016768837E+00   0.7954056930E-04  -0.2113264344E-05   0.0000000000E+00   0.0000000000E+00   0.1945214572E-01   0.8947210556E-03   0.0000000000E+00  -0.3025680620E-02
   0.2483746544E+00   0.9247624961E-01   0.8185038190E-04  -0.1548892412E-05   0.0000000000E+00   0.0000000000E+00   0.1848826130E-01   0.1440839501E-02   0.0000000000E+00  -0.2849759659E-02
   0.9245958386E-01   0.3825714657E-01   0.7163195769E-04  -0.1119602853E-04   0.0000000000E+00   0.0000000000E+00  -0.2851033925E-02  -0.1418820244E-01   0.0000000000E+00   0.5203579620E-02
   0.1081167476E+00   0.4609147855E-01   0.6988764262E-04  -0.7062945171E-05   0.0000000000E+00   0.0000000000E+00   0.4226058498E-02  -0.9767025695E-02   0.0000000000E+00  -0.3593744128E-02
   0.9617311043E-01   0.6353021001E-01   0.6201403197E-04  -0.1198469315E-04   0.0000000000E+00   0.0000000000E+00   0.1081784817E-01  -0.5405894341E-02   0.0000000000E+00  -0.5319058330E-02
   0.8321184697E-01   0.5554033395E-01   0.6488746696E-04  -0.1668975126E-04   0.0000000000E+00   0.0000000000E+00   0.3240716941E-03  -0.7158838368E-03   0.0000000000E+00  -0.2017189297E-03
   0.1002880776E+00   0.4217468871E-01   0.7067556217E-04  -0.8755191829E-05   0.0000000000E+00   0.0000000000E+00   0.1662016468E-02  -0.1049420476E-01   0.0000000000E+00  -0.2945692130E-04
   0.1021452547E+00   0.5481091803E-01   0.6628072374E-04  -0.9448173182E-05   0.0000000000E+00   0.0000000000E+00   0.7150952119E-02  -0.7484104767E-02   0.0000000000E+00  -0.4381404995E-02
   0.8969223799E-01   0.5953563941E-01   0.6321368757E-04  -0.1396788883E-04   0.0000000000E+00   0.0000000000E+00   0.6050240600E-02  -0.2981495198E-02   0.0000000000E+00  -0.3077523561E-02
   0.8826071609E-01   0.4712571503E-01   0.6858849145E-04  -0.1395936715E-04   0.0000000000E+00   0.0000000000E+00  -0.1913057355E-02  -0.7322002121E-02   0.0000000000E+00   0.3153618900E-02
   0.9815420558E-01   0.1950343198E-01   0.7567898029E-04  -0.5600419084E-05   0.0000000000E+00   0.0000000000E+00  -0.1771995561E-02  -0.2414007087E-01   0.0000000000E+00   0.4284945202E-02
   0.1000770719E+00   0.0000000000E+00   0.7707085351E-04   0.0000000000E+00   0.0000000000E+00   0.0000000000E+00  -0.9541609153E-03  -0.2933647510E-01   0.0000000000E+00   0.8498581767E-04
   0.1209113274E+00   0.0000000000E+00   0.7799735966E-04   0.0000000000E+00   0.0000000000E+00   0.0000000000E+00  -0.1922631182E-02  -0.1206846801E-01   0.0000000000E+00  -0.8336307319E-04
   0.1218065379E+00   0.2610961089E-01   0.7567385941E-04  -0.2697814797E-05   0.0000000000E+00   0.0000000000E+00   0.8170257708E-03  -0.9370864367E-02   0.0000000000E+00  -0.3161371297E-02
   0.9959520740E-01   0.9798884332E-02   0.7673690310E-04  -0.2830347902E-05   0.0000000000E+00   0.0000000000E+00  -0.1626458735E-02  -0.2762985574E-01   0.0000000000E+00   0.2654897045E-02
   0.1104943680E+00   0.0000000000E+00   0.7770197656E-04   0.0000000000E+00   0.0000000000E+00   0.0000000000E+00  -0.9923139840E-03  -0.1784239098E-01   0.0000000000E+00  -0.1538908658E-03
   0.1213595125E+00   0.1305473866E-01   0.7741146811E-04  -0.1415744244E-05   0.0000000000E+00   0.0000000000E+00  -0.8676667567E-03  -0.1080928650E-01   0.0000000000E+00  -0.1441562173E-02
   0.1099804656E+00   0.2280684087E-01   0.7577363333E-04  -0.3830629336E-05   0.0000000000E+00   0.0000000000E+00   0.2575694901E-04  -0.1488344295E-01   0.0000000000E+00  -0.1394939966E-04
   0.2106254180E+00   0.3763286764E-01   0.8127901609E-04  -0.3651602496E-06   0.0000000000E+00   0.0000000000E+00   0.1196209855E-01   0.1846603806E-02   0.0000000000E+00  -0.2867606834E-02
   0.1905369157E+00   0.3838192718E-01   0.7900565755E-04  -0.5732244971E-06   0.0000000000E+00   0.0000000000E+00   0.1074654284E-01   0.7388919348E-03   0.0000000000E+00  -0.3660490003E-02
   0.1867884310E+00   0.1901269122E-01   0.8027902417E-04  -0.2293806326E-06   0.0000000000E+00   0.0000000000E+00   0.8523454304E-02   0.1134749005E-02   0.0000000000E+00  -0.2095760438E-02
   0.2073144099E+00   0.1873789036E-01   0.8212794506E-04  -0.1335403423E-06   0.0000000000E+00   0.0000000000E+00   0.1034811512E-01   0.2214754881E-02   0.0000000000E+00  -0.1622180525E-02
   0.2005811474E+00   0.3800741194E-01   0.8012243390E-04  -0.4546623824E-06   0.0000000000E+00   0.0000000000E+00   0.1136769750E-01   0.1324399684E-02   0.0000000000E+00  -0.3224397926E-02
   0.1886627752E+00   0.2869733120E-01   0.7974418929E-04  -0.3792984568E-06   0.0000000000E+00   0.0000000000E+00   0.9510818331E-02   0.9027487470E-03   0.0000000000E+00  -0.2880664702E-02
   0.1970513890E+00   0.1887529869E-01   0.8116497154E-04  -0.1735055791E-06   0.0000000000E+00   0.0000000000E+00   0.9455481745E-02   0.1715133647E-02   0.0000000000E+00  -0.1832823323E-02
   0.2089699843E+00   0.2818539724E-01   0.8178126921E-04  -0.2311590708E-06   0.0000000000E+00   0.0000000000E+00   0.1105420213E-01   0.2008300985E-02   0.0000000000E+00  -0.2246781923E-02
   0.1574670157E+00   0.2159384902E+00   0.4366866765E-04  -0.1895781257E-04   0.0000000000E+00   0.0000000000E+00   0.3033174364E-01  -0.6292002111E-03   0.0000000000E+00   0.8280417477E-03
   0.1564938543E+00   0.2325847982E+00   0.4118329481E-04  -0.2070375374E-04   0.0000000000E+00   0.0000000000E+00   0.3115903882E-01  -0.1481296336E-03   0.0000000000E+00   0.5997677000E-03
   0.1370145386E+00   0.2326063064E+00   0.3516757350E-04  -0.2382758464E-04   0.0000000000E+00   0.0000000000E+00   0.3049435528E-01  -0.1593561267E-03   0.0000000000E+00   0.1053072205E-02
   0.1382529554E+00   0.2157907558E+00   0.3784536415E-04  -0.2201715420E-04   0.0000000000E+00   0.0000000000E+00   0.3009861850E-01  -0.6855467585E-03   0.0000000000E+00   0.1531302160E-02
   0.1569804570E+00   0.2242616398E+00   0.4244100899E-04  -0.1983519941E-04   0.0000000000E+00   0.0000000000E+00   0.3068677312E-01  -0.4070395654E-03   0.0000000000E+00   0.7206836863E-03
   0.1467541873E+00   0.2325956074E+00   0.3815926091E-04  -0.2221764845E-04   0.0000000000E+00   0.0000000000E+00   0.3082209015E-01  -0.1743686333E-03   0.0000000000E+00   0.8013355999E-03
   0.1376337655E+00   0.2241985223E+00   0.3653252874E-04  -0.2293069678E-04   0.0000000000E+00   0.0000000000E+00   0.3023844718E-01  -0.4402799956E-03   0.0000000000E+00   0.1298440638E-02
   0.1478599728E+00   0.2158646658E+00   0.4075179788E-04  -0.2043718782E-04   0.0000000000E+00   0.0000000000E+00   0.3021000644E-01  -0.6821562088E-03   0.0000000000E+00   0.1153163971E-02
   0.0000000000E+00   0.9996599766E-01   0.0000000000E+00  -0.3400333501E-04   0.0000000000E+00   0.0000000000E+00   0.8115759287E-01   0.1323506085E-02   0.0000000000E+00   0.1471407413E-03
   0.1952473335E-01   0.9804545323E-01   0.1570095481E-04  -0.3307336991E-04   0.0000000000E+00   0.0000000000E+00   0.7275983730E-01   0.2901741592E-02   0.0000000000E+00  -0.1359266347E-01
   0.9809612501E-02   0.9948468362E-01   0.7897821329E-05  -0.3378688074E-04   0.0000000000E+00   0.0000000000E+00   0.7891741678E-01   0.1896549386E-02   0.0000000000E+00  -0.7429199995E-02
   0.1934399246E-01   0.1071502998E+00   0.1240685820E-04  -0.3455715955E-04   0.0000000000E+00   0.0000000000E+00   0.6132300904E-01   0.5143993587E-02   0.0000000000E+00  -0.7246347027E-02
   0.0000000000E+00   0.1082977233E+00   0.0000000000E+00  -0.3561072661E-04   0.0000000000E+00   0.0000000000E+00   0.6617351788E-01   0.4239019100E-02   0.0000000000E+00   0.4580115668E-04
   0.1680498654E-01   0.1512988339E+00   0.5927742956E-05  -0.3788106086E-04   0.0000000000E+00   0.0000000000E+00   0.3725056447E-01   0.6691961040E-02   0.0000000000E+00   0.1485200360E-02
   0.0000000000E+00   0.1499614895E+00   0.0000000000E+00  -0.3851645502E-04   0.0000000000E+00   0.0000000000E+00   0.3791355859E-01   0.7437002067E-02   0.0000000000E+00   0.1909342221E-04
   0.1728359108E-01   0.1427498106E+00   0.6553380143E-05  -0.3743740546E-04   0.0000000000E+00   0.0000000000E+00   0.3986805285E-01   0.6970211891E-02   0.0000000000E+00   0.1067916977E-02
   0.8402509498E-02   0.1506299845E+00   0.2980117935E-05  -0.3836853616E-04   0.0000000000E+00   0.0000000000E+00   0.3761221867E-01   0.7193496665E-02   0.0000000000E+00   0.7207415279E-03
   0.0000000000E+00   0.1416285134E+00   0.0000000000E+00  -0.3816764391E-04   0.0000000000E+00   0.0000000000E+00   0.4076818328E-01   0.7758439150E-02   0.0000000000E+00   0.5116458375E-04
   0.5107404427E-01   0.1386378889E+00   0.1973417048E-04  -0.3175110359E-04   0.0000000000E+00   0.0000000000E+00   0.3779990102E-01   0.2578782326E-02   0.0000000000E+00   0.2237019504E-02
   0.4906385127E-01   0.1540265288E+00   0.1694747149E-04  -0.3344724205E-04   0.0000000000E+00   0.0000000000E+00   0.3526000431E-01   0.2627719666E-02   0.0000000000E+00   0.3305374776E-02
   0.3318704048E-01   0.1527003895E+00   0.1157578080E-04  -0.3606548873E-04   0.0000000000E+00   0.0000000000E+00   0.3625682004E-01   0.4857066145E-02   0.0000000000E+00   0.2647410439E-02
   0.3438532457E-01   0.1357049894E+00   0.1384796527E-04  -0.3479858455E-04   0.0000000000E+00   0.0000000000E+00   0.4044028709E-01   0.5347441517E-02   0.0000000000E+00   0.1591944681E-02
   0.5006883591E-01   0.1463321856E+00   0.1822711405E-04  -0.3262243050E-04   0.0000000000E+00   0.0000000000E+00   0.3661391070E-01   0.2695867545E-02   0.0000000000E+00   0.2765364987E-02
   0.4112545992E-01   0.1533633747E+00   0.1427382263E-04  -0.3484128727E-04   0.0000000000E+00   0.0000000000E+00   0.3576329293E-01   0.3790829524E-02   0.0000000000E+00   0.3002742906E-02
   0.3378605102E-01   0.1442026647E+00   0.1258032462E-04  -0.3544928244E-04   0.0000000000E+00   0.0000000000E+00   0.3830344654E-01   0.5153373171E-02   0.0000000000E+00   0.2037005921E-02
   0.4272972171E-01   0.1371713417E+00   0.1682840918E-04  -0.3336525083E-04   0.0000000000E+00   0.0000000000E+00   0.3914203401E-01   0.3941065934E-02   0.0000000000E+00   0.1713513351E-02
   0.1668995288E-01   0.1677644762E+00   0.5286577683E-05  -0.3866178194E-04   0.0000000000E+00   0.0000000000E+00   0.3329005372E-01   0.5180632474E-02   0.0000000000E+00   0.1650424452E-02
   0.0000000000E+00   0.1666274619E+00   0.0000000000E+00  -0.3921014406E-04   0.0000000000E+00   0.0000000000E+00   0.3355765752E-01   0.5775057867E-02   0.0000000000E+00   0.2508640828E-04
   0.8344981994E-02   0.1671958153E+00   0.2648853544E-05  -0.3908270117E-04   0.0000000000E+00   0.0000000000E+00   0.3346340931E-01   0.5608027052E-02   0.0000000000E+00   0.8111476904E-03
   0.0000000000E+00   0.1582944733E+00   0.0000000000E+00  -0.3885773460E-04   0.0000000000E+00   0.0000000000E+00   0.3549506727E-01   0.6475493017E-02   0.0000000000E+00   0.2397674861E-04
   0.1674743645E-01   0.1595316519E+00   0.5573950731E-05  -0.3826714872E-04   0.0000000000E+00   0.0000000000E+00   0.3507824677E-01   0.5843036662E-02   0.0000000000E+00   0.1534937009E-02
   0.1709644269E-01   0.1840860601E+00   0.4980287285E-05  -0.3946793105E-04   0.0000000000E+00   0.0000000000E+00   0.3033266409E-01   0.3696754128E-02   0.0000000000E+00   0.1623140817E-02
   0.3340107791E-01   0.1685698983E+00   0.1056711111E-04  -0.3699373899E-04   0.0000000000E+00   0.0000000000E+00   0.3304283163E-01   0.3850808393E-02   0.0000000000E+00   0.2975694389E-02
   0.3452340511E-01   0.1842414082E+00   0.1010301177E-04  -0.3782484591E-04   0.0000000000E+00   0.0000000000E+00   0.3047698826E-01   0.2753357444E-02   0.0000000000E+00   0.2962318180E-02
   0.1689318584E-01   0.1759252734E+00   0.5122444002E-05  -0.3905263760E-04   0.0000000000E+00   0.0000000000E+00   0.3172830158E-01   0.4400303778E-02   0.0000000000E+00   0.1618888197E-02
   0.2504551410E-01   0.1681670694E+00   0.7925502053E-05  -0.3795362184E-04   0.0000000000E+00   0.0000000000E+00   0.3320058843E-01   0.4626339048E-02   0.0000000000E+00   0.2292192151E-02
   0.3396222754E-01   0.1764056680E+00   0.1031923594E-04  -0.3740199698E-04   0.0000000000E+00   0.0000000000E+00   0.3170914287E-01   0.3292926232E-02   0.0000000000E+00   0.2946801559E-02
   0.2580991421E-01   0.1841636005E+00   0.7532908943E-05  -0.3877246437E-04   0.0000000000E+00   0.0000000000E+00   0.3042376415E-01   0.3299245911E-02   0.0000000000E+00   0.2293278880E-02
   0.1944785873E-01   0.2499566919E+00   0.3413634832E-05  -0.4330811791E-04   0.0000000000E+00   0.0000000000E+00   0.1784058730E-01  -0.1000001989E-03   0.0000000000E+00   0.5226118310E-04
   0.3848632636E-01   0.2329036462E+00   0.8510664523E-05  -0.4063384994E-04   0.0000000000E+00   0.0000000000E+00   0.2305151065E-01   0.1859108250E-03   0.0000000000E+00   0.1521891950E-02
   0.3889593995E-01   0.2499583310E+00   0.7049648243E-05  -0.4166904321E-04   0.0000000000E+00   0.0000000000E+00   0.1952865644E-01  -0.7288842920E-04   0.0000000000E+00   0.9290252473E-04
   0.1927513641E-01   0.2416185706E+00   0.3818505861E-05  -0.4284442967E-04   0.0000000000E+00   0.0000000000E+00   0.2008794531E-01   0.1165975536E-03   0.0000000000E+00   0.4431667705E-03
   0.2879430249E-01   0.2330919360E+00   0.6298392780E-05  -0.4161803962E-04   0.0000000000E+00   0.0000000000E+00   0.2250630151E-01   0.2512967247E-03   0.0000000000E+00   0.1147929004E-02
   0.3869120872E-01   0.2414309717E+00   0.7853824579E-05  -0.4116834707E-04   0.0000000000E+00   0.0000000000E+00   0.2142545729E-01   0.8458045912E-04   0.0000000000E+00   0.8174471588E-03
   0.2917186122E-01   0.2499573861E+00   0.5192520584E-05  -0.4261393285E-04   0.0000000000E+00   0.0000000000E+00   0.1867726278E-01  -0.6589878168E-04   0.0000000000E+00   0.3488688573E-04
   0.2499602822E-01   0.1519994708E+00   0.8766516931E-05  -0.3710624352E-04   0.0000000000E+00   0.0000000000E+00   0.3675339474E-01   0.5802103597E-02   0.0000000000E+00   0.2055584958E-02
   0.3329401073E-01   0.1606351517E+00   0.1102293190E-04  -0.3652926902E-04   0.0000000000E+00   0.0000000000E+00   0.3458011165E-01   0.4342636518E-02   0.0000000000E+00   0.2762552060E-02
   0.3292638470E+00   0.0000000000E+00   0.9716599975E-04   0.0000000000E+00   0.0000000000E+00   0.0000000000E+00   0.1490113299E-01   0.4457668417E-02   0.0000000000E+00  -0.1597664021E-05
   0.3500999940E+00   0.0000000000E+00   0.1000000000E-03   0.0000000000E+00   0.0000000000E+00   0.0000000000E+00   0.1499021169E-01   0.4490580414E-02   0.0000000000E+00  -0.4299091169E-06
   0.3500999940E+00   0.1923075625E-01   0.1000000000E-03  -0.1364793052E-07   0.0000000000E+00   0.0000000000E+00   0.1516942585E-01   0.4413224872E-02   0.0000000000E+00  -0.5247235113E-06
   0.3298599944E+00   0.1871453130E-01   0.9720739830E-04  -0.1399512518E-07   0.0000000000E+00   0.0000000000E+00   0.1507955716E-01   0.4384713663E-02   0.0000000000E+00  -0.1589957785E-03
   0.3396819180E+00   0.0000000000E+00   0.9858097942E-04   0.0000000000E+00   0.0000000000E+00   0.0000000000E+00   0.1494600143E-01   0.4475732044E-02   0.0000000000E+00  -0.1490769398E-05
   0.3500999940E+00   0.9615381266E-02   0.1000000000E-03  -0.3703679242E-08   0.0000000000E+00   0.0000000000E+00   0.1502564432E-01   0.4436920304E-02   0.0000000000E+00   0.3595168319E-07
   0.3399799914E+00   0.1897264408E-01   0.9860138934E-04  -0.1351508110E-07   0.0000000000E+00   0.0000000000E+00   0.1512486863E-01   0.4401090416E-02   0.0000000000E+00  -0.7981252725E-04
   0.3295619304E+00   0.9357268575E-02   0.9719639113E-04  -0.4075448764E-08   0.0000000000E+00   0.0000000000E+00   0.1493574291E-01   0.4405952587E-02   0.0000000000E+00  -0.7963280635E-04
   0.3500999940E+00   0.3846146305E-01   0.1000000000E-03  -0.7685153289E-07   0.0000000000E+00   0.0000000000E+00   0.1569716062E-01   0.4187855910E-02   0.0000000000E+00  -0.2708457143E-06
   0.3303029813E+00   0.3768295658E-01   0.9715334598E-04  -0.7592388220E-07   0.0000000000E+00   0.0000000000E+00   0.1560278161E-01   0.4164415502E-02   0.0000000000E+00  -0.2966202048E-03
   0.3500999940E+00   0.2884611978E-01   0.1000000000E-03  -0.3611923548E-07   0.0000000000E+00   0.0000000000E+00   0.1538221858E-01   0.4286095588E-02   0.0000000000E+00  -0.4674720305E-06
   0.3402014847E+00   0.3807221242E-01   0.9857373116E-04  -0.7557873884E-07   0.0000000000E+00   0.0000000000E+00   0.1565104137E-01   0.4180157008E-02   0.0000000000E+00  -0.1487874404E-03
   0.3300814960E+00   0.2819875369E-01   0.9718902559E-04  -0.3611120029E-07   0.0000000000E+00   0.0000000000E+00   0.1528961131E-01   0.4260043841E-02   0.0000000000E+00  -0.2277303682E-03
   0.3306555312E+00   0.5676249363E-01   0.9702220808E-04  -0.2314689357E-06   0.0000000000E+00   0.0000000000E+00   0.1644328000E-01   0.3816161566E-02   0.0000000000E+00  -0.4040626897E-03
   0.3309344953E+00   0.7595612978E-01   0.9682825743E-04  -0.5203174655E-06   0.0000000000E+00   0.0000000000E+00   0.1755494491E-01   0.3370368681E-02   0.0000000000E+00  -0.4756522411E-03
   0.3119052443E+00   0.7514497094E-01   0.9370733604E-04  -0.5418552751E-06   0.0000000000E+00   0.0000000000E+00   0.1741452803E-01   0.3258478448E-02   0.0000000000E+00  -0.9522873209E-03
   0.3112389970E+00   0.5605295471E-01   0.9407902322E-04  -0.2441891547E-06   0.0000000000E+00   0.0000000000E+00   0.1625852139E-01   0.3710779113E-02   0.0000000000E+00  -0.8119829671E-03
   0.3307950037E+00   0.6635932654E-01   0.9693065678E-04  -0.3573580699E-06   0.0000000000E+00   0.0000000000E+00   0.1696311436E-01   0.3582679352E-02   0.0000000000E+00  -0.4403648526E-03
   0.3214198509E+00   0.7555054980E-01   0.9526386897E-04  -0.5279030990E-06   0.0000000000E+00   0.0000000000E+00   0.1748780022E-01   0.3324444462E-02   0.0000000000E+00  -0.7119931824E-03
   0.3115721307E+00   0.6559897790E-01   0.9390366115E-04  -0.3741998144E-06   0.0000000000E+00   0.0000000000E+00   0.1680017755E-01   0.3474032450E-02   0.0000000000E+00  -0.8836285734E-03
   0.3209472589E+00   0.5640772597E-01   0.9554589392E-04  -0.2360305565E-06   0.0000000000E+00   0.0000000000E+00   0.1635307491E-01   0.3770645225E-02   0.0000000000E+00  -0.6060443158E-03
   0.3310789303E+00   0.9525502749E-01   0.9657325277E-04  -0.9733139228E-06   0.0000000000E+00   0.0000000000E+00   0.1887900776E-01   0.2863075239E-02   0.0000000000E+00  -0.5125766690E-03
   0.3122818670E+00   0.9439961400E-01   0.9321199153E-04  -0.1007999475E-05   0.0000000000E+00   0.0000000000E+00   0.1878309979E-01   0.2745943968E-02   0.0000000000E+00  -0.1021744245E-02
   0.3310067317E+00   0.8560559655E-01   0.9670469340E-04  -0.7251499105E-06   0.0000000000E+00   0.0000000000E+00   0.1819117210E-01   0.3108893377E-02   0.0000000000E+00  -0.4946263936E-03
   0.3216803956E+00   0.9482732199E-01   0.9488956178E-04  -0.9856129139E-06   0.0000000000E+00   0.0000000000E+00   0.1883482092E-01   0.2816941183E-02   0.0000000000E+00  -0.7653888014E-03
   0.3120935632E+00   0.8477231077E-01   0.9346717393E-04  -0.7529276206E-06   0.0000000000E+00   0.0000000000E+00   0.1807311689E-01   0.2994413005E-02   0.0000000000E+00  -0.9883702651E-03
   0.3310650577E+00   0.1147079508E+00   0.9626071748E-04  -0.1613188114E-05   0.0000000000E+00   0.0000000000E+00   0.2035611041E-01   0.2329821239E-02   0.0000000000E+00  -0.5193473049E-03
   0.3309235867E+00   0.1342725840E+00   0.9590368000E-04  -0.2450047219E-05   0.0000000000E+00   0.0000000000E+00   0.2192186556E-01   0.1804885068E-02   0.0000000000E+00  -0.5009028891E-03
   0.3118896996E+00   0.1337911372E+00   0.9184261400E-04  -0.2544819224E-05   0.0000000000E+00   0.0000000000E+00   0.2193388340E-01   0.1680549079E-02   0.0000000000E+00  -0.9904948620E-03
   0.3122785917E+00   0.1139338533E+00   0.9258865757E-04  -0.1669669854E-05   0.0000000000E+00   0.0000000000E+00   0.2030918099E-01   0.2208029185E-02   0.0000000000E+00  -0.1030525984E-02
   0.3309943089E+00   0.1244902956E+00   0.9608386233E-04  -0.2007375682E-05   0.0000000000E+00   0.0000000000E+00   0.2113309845E-01   0.2065182858E-02   0.0000000000E+00  -0.5101929559E-03
   0.3214066583E+00   0.1340318779E+00   0.9387332126E-04  -0.2487073531E-05   0.0000000000E+00   0.0000000000E+00   0.2193258341E-01   0.1757673534E-02   0.0000000000E+00  -0.7445016869E-03
   0.3120841494E+00   0.1238625240E+00   0.9221940322E-04  -0.2082048813E-05   0.0000000000E+00   0.0000000000E+00   0.2111584383E-01   0.1941960540E-02   0.0000000000E+00  -0.1010860724E-02
   0.3216718229E+00   0.1143209090E+00   0.9442285439E-04  -0.1634011698E-05   0.0000000000E+00   0.0000000000E+00   0.2033678882E-01   0.2283115276E-02   0.0000000000E+00  -0.7735157423E-03
   0.2890872720E+00   0.1826414906E-01   0.9170799272E-04  -0.2354311559E-07   0.0000000000E+00   0.0000000000E+00   0.1439117298E-01   0.4114543093E-02   0.0000000000E+00  -0.4954071714E-03
   0.2875916296E+00   0.0000000000E+00   0.9163562282E-04   0.0000000000E+00   0.0000000000E+00   0.0000000000E+00   0.1415172664E-01   0.4184211690E-02   0.0000000000E+00  -0.6033754136E-05
   0.3084277031E+00   0.0000000000E+00   0.9436607135E-04   0.0000000000E+00   0.0000000000E+00   0.0000000000E+00   0.1462481968E-01   0.4357807226E-02   0.0000000000E+00  -0.3659787119E-05
   0.3094820521E+00   0.1840623617E-01   0.9442810722E-04  -0.1712520671E-07   0.0000000000E+00   0.0000000000E+00   0.1482347746E-01   0.4287249360E-02   0.0000000000E+00  -0.3203067834E-03
   0.2883394652E+00   0.9132077641E-02   0.9170120964E-04  -0.8658849060E-08   0.0000000000E+00   0.0000000000E+00   0.1421050448E-01   0.4133004632E-02   0.0000000000E+00  -0.2488757742E-03
   0.2980096408E+00   0.0000000000E+00   0.9298977011E-04   0.0000000000E+00   0.0000000000E+00   0.0000000000E+00   0.1438867333E-01   0.4273468796E-02   0.0000000000E+00  -0.3552311226E-05
   0.3089548973E+00   0.9203121021E-02   0.9441625417E-04  -0.5628832717E-08   0.0000000000E+00   0.0000000000E+00   0.1466882504E-01   0.4307161521E-02   0.0000000000E+00  -0.1607764874E-03
   0.2992846522E+00   0.1833519212E-01   0.9305819540E-04  -0.1988257781E-07   0.0000000000E+00   0.0000000000E+00   0.1460803326E-01   0.4204061385E-02   0.0000000000E+00  -0.4051013236E-03
   0.2122731539E+00   0.1636827914E+00   0.6594092398E-04  -0.7820578340E-05   0.0000000000E+00   0.0000000000E+00   0.2617584068E-01  -0.9687337557E-03   0.0000000000E+00  -0.1800230591E-02
   0.2163775150E+00   0.1467631521E+00   0.6902600468E-04  -0.6102880721E-05   0.0000000000E+00   0.0000000000E+00   0.2458392322E-01  -0.8996225517E-03   0.0000000000E+00  -0.2397874284E-02
   0.2310276005E+00   0.1467303839E+00   0.7262552779E-04  -0.5314084999E-05   0.0000000000E+00   0.0000000000E+00   0.2414436632E-01  -0.3432571747E-03   0.0000000000E+00  -0.2328370930E-02
   0.2322203089E+00   0.1630986441E+00   0.7119991221E-04  -0.6530929652E-05   0.0000000000E+00   0.0000000000E+00   0.2553706786E-01  -0.3569419569E-03   0.0000000000E+00  -0.1881019201E-02
   0.2143253355E+00   0.1552229815E+00   0.6748448454E-04  -0.6944456758E-05   0.0000000000E+00   0.0000000000E+00   0.2542752009E-01  -0.9324008005E-03   0.0000000000E+00  -0.2086323253E-02
   0.2237025771E+00   0.1467467897E+00   0.7083708638E-04  -0.5687301115E-05   0.0000000000E+00   0.0000000000E+00   0.2436851503E-01  -0.5971492245E-03   0.0000000000E+00  -0.2362845428E-02
   0.2316239333E+00   0.1549145143E+00   0.7189829772E-04  -0.5914651990E-05   0.0000000000E+00   0.0000000000E+00   0.2484912082E-01  -0.3455620700E-03   0.0000000000E+00  -0.2101691250E-02
   0.2222467532E+00   0.1633907621E+00   0.6859219861E-04  -0.7130906879E-05   0.0000000000E+00   0.0000000000E+00   0.2584144083E-01  -0.6681026491E-03   0.0000000000E+00  -0.1858005969E-02
   0.2278497088E+00   0.1845701065E-01   0.8425277236E-04  -0.8164842681E-07   0.0000000000E+00   0.0000000000E+00   0.1179093510E-01   0.2960326049E-02   0.0000000000E+00  -0.1237196759E-02
   0.2307019736E+00   0.3704792086E-01   0.8369064660E-04  -0.2439445755E-06   0.0000000000E+00   0.0000000000E+00   0.1298988388E-01   0.2633657565E-02   0.0000000000E+00  -0.2220888825E-02